(INPUT FILE)
Create H   file=/global/apps/adf/2013.01c/atomicdata/TZ2P/H
xc
gga PW91
End
End Input

 *******************************************************************************
 *                                                                             *
 *  -------------------------------------                                      *
 *   Amsterdam Density Functional  (ADF)         2013.01   April 2, 2013       *
 *  -------------------------------------                                      *
 *                                               Build 201311142142            *
 *                                                                             *
 *                                                                             *
 *                              =================                              *
 *                              |               |                              *
 *                              |     A D F     |                              *
 *                              |               |                              *
 *                              =================                              *
 *                                                                             *
 *                                                                             *
 *   Online information and documentation:  http://www.scm.com                 *
 *   E-mail:  support@scm.com   info@scm.com                                   *
 *                                                                             *
 *   Scientific publications using ADF results must be properly referenced     *
 *   See the User Manuals (or the web site) for recommended citations          *
 *   The terms and conditions of the End User License Agreement apply to       *
 *   the use of ADF, http://www.scm.com/Sales/LicAgreement.html                *
 *                                                                             *
 **********************  x86_64_linux_intel / intelmpi  ************************
 
 Licensed to: Dr. Steinar Henden / Computer Centre University of Troms? / Troms? / NO
 SCM User ID: u7207
  
 ADF 2013.01  RunTime: Sep02-2014 09:35:01  Nodes: 1  Procs: 1

 Temporary files are created in /global/work/espent/2177692.stallo-adm.uit.no/kid_0.HPvLOD

 Hydrogen (TZ2P)



 ===========================
 A T T A C H E D   F I L E S
 ===========================
  
 CREATE - Data File:    /global/apps/adf/2013.01c/atomicdata/TZ2P/H
                        Hydrogen (TZ2P)



 ===============================
 M O D E L   P A R A M E T E R S
 ===============================
  
 DENSITY FUNCTIONAL POTENTIAL (scf)
    LDA:                               VWN                                      
    Gradient Corrections:              PW91x PW91c                             == Not Default ==

 SPIN  (restricted / unrestr.)
    Molecule:                          Restricted                               

 OTHER ASPECTS
    Relativistic Corrections:          ---                                      

    Nuclear Charge Density Model:      Point Charge Nuclei                                                                                                                                                                                     
    Core Treatment:                    Frozen Orbital(s)                        

    Hyperfine or Zeeman Interaction:   ---                                      



 =====================================
 S Y M M E T R Y ,   E L E C T R O N S
 =====================================
  
 Symmetry: ATOM

 Irreducible Representations, including subspecies
 -------------------------------------------------
 S
 P:x  P:y  P:z
 D:z2  D:x2-y2  D:xy  D:xz  D:yz
 F:z3  F:z  F:xyz  F:z2x  F:z2y  F:x  F:y


 Configuration of Valence Electrons
 ==================================

          Occupation Numbers
          -------------------------------------------------
 S        1
 P        0
 D        0
 F        0
          -------------------------------------------------

 Total:   1

 Net Charge: 0 (Nuclei minus Electrons)

 Preset values for MO occupations will be applied through SCF cycle no. 1000000
 Thereafter, the program will assign electrons to MOs that are spatially
 similar to the occupied MOs in a "reference" cycle ("KeepOrbitals").
 The reference cycle is always the PREVIOUS cycle: it will evolve with
 the SCF procedure.



 ================================
 (Slater-type)  F U N C T I O N S  ***  (Basis and Fit)  ***
 ================================
  

 Atom Type    1  (H)
 ==============

 Valence Basis Sets:   5
 -----------------------
   1 S    0.690000
   1 S    0.920000
   1 S    1.580000
   2 P    1.250000
   3 D    2.500000

 Charge Fitting Sets (for the computation of the Coulomb Potential):  11
 -----------------------------------------------------------------------
   1 S    3.160000
   1 S    2.090000
   1 S    1.380000
   2 S    1.500000
   2 P    4.000000
   2 P    2.650000
   2 P    1.750000
   3 D    4.000000
   3 D    2.500000
   4 F    3.000000
   5 G    4.000000


 BAS: List of all Elementary Cartesian Basis Functions
 =====================================================

 The numbering in the list below (to the right of the function characteristics) is referred
 to in print-outs of MO eigenvectors and Mulliken populations in the BAS representation
 (as contrasted to the SFO representation).

 Notes:
 1. The functions are characterized by a polynomial prefactor (powers of x,y,z and r) and
    an exponential decay factor alpha.
 2. Since the basis sets are specific for an atom TYPE, the individual functions occur on
    all atoms of that type.
 3. The word 'Core' in the left margin signals that it is a Core Function (CF) : not a
    degree of freedom in the valence set, but only used to ensure orthogonalization of
    the other valence basis functions on the frozen Core Orbitals.


 (power of) X  Y  Z  R     Alpha  on Atom
            ==========     =====     ==========

 H                                    1
                                  ---------------------------------------------------------------------------
            0  0  0  0     0.690      1
            0  0  0  0     0.920      2
            0  0  0  0     1.580      3
            1  0  0  0     1.250      4
            0  1  0  0     1.250      5
            0  0  1  0     1.250      6
            2  0  0  0     2.500      7
            1  1  0  0     2.500      8
            1  0  1  0     2.500      9
            0  2  0  0     2.500     10
            0  1  1  0     2.500     11
            0  0  2  0     2.500     12

 Total number of charge fitting functions (nprimf)        50
 Total number of Cartesian basis functions (naos)         12
 Total number of Cartesian core functions  (ncos)          0



 BAS: List of all Elementary Cartesian Basis Functions
 =====================================================

 The numbering in the list below (to the right of the function characteristics) is referred
 to in print-outs of MO eigenvectors and Mulliken populations in the BAS representation
 (as contrasted to the SFO representation).

 Notes:
 1. The functions are characterized by a polynomial prefactor (powers of x,y,z and r) and
    an exponential decay factor alpha.
 2. Since the basis sets are specific for an atom TYPE, the individual functions occur on
    all atoms of that type.
 3. The word 'Core' in the left margin signals that it is a Core Function (CF) : not a
    degree of freedom in the valence set, but only used to ensure orthogonalization of
    the other valence basis functions on the frozen Core Orbitals.


 (power of) X  Y  Z  R     Alpha  on Atom
            ==========     =====     ==========

 H                                    1
                                  ---------------------------------------------------------------------------
            0  0  0  0     0.690      1
            0  0  0  0     0.920      2
            0  0  0  0     1.580      3
            1  0  0  0     1.250      4
            0  1  0  0     1.250      5
            0  0  1  0     1.250      6
            2  0  0  0     2.500      7
            1  1  0  0     2.500      8
            1  0  1  0     2.500      9
            0  2  0  0     2.500     10
            0  1  1  0     2.500     11
            0  0  2  0     2.500     12
1
 ***************************************************************************************************



                                              ***********************
                                              *  T E C H N I C A L  *
                                              ***********************
  



 =============================================================
 P A R A L L E L I Z A T I O N  and  V E C T O R I Z A T I O N
 =============================================================
  
 Nr of parallel processes:                                1
 Maximum vector length in NumInt loops:                 128



 ===============
 I O  vs.  C P U  ***  (store numerical data on disk or recalculate)  ***
 ===============
  
 Basis functions:   recalculate when needed
 Fit functions:     recalculate when needed

 IO buffersize (Mb):                                     64.000000



 =====================
 S C F   U P D A T E S
 =====================
  
 Max. nr. of cycles:                               300
 Convergence criterion:                              0.0000000100
   secondary criterion:                              0.0000000100

 Mix parameter (when DIIS does not apply):           0.2000000000
 Special mix parameter for the first cycle:          1.0000000000


 DIIS (Direct Inversion in Iteration Space)
    Replace damping when SCF Error is below:         0.5000000000
    Apply anyway after SCF cycle:
                                                     5
    (Max.) nr. of expansion vectors:                10

    Upperbound on expansion coefficients:            5.0000000000
    (when exceeded, IterationSpace is re-built)
    2nd Upperbound on coefficients:                 25.0000000000
    (when exceeded, simple damping will be used)
 Automatic ElectronSmearing (in case of problematic SCF convergence) disabled



 =================
 P R E C I S I O N  ***  (General: NumInt, NeglectFunctionTails, ...)  ***
 =================
  

 NumInt:           Target precision:                10.0000000000
 -------           Initial precision:               10.0000000000
                   Min. precision (optimization):   10.0000000000

 Neglect Functions:          Basis functions:        0.1000000000E-11
 ------------------          Fit functions:          0.1000000000E-11



 ===========================
 L I N E A R   S C A L I N G
 ===========================
  

 Cut-off radii density fit:                        0.1000000000E-13
 Overlap cut-off criterion AO matrix elements:     0.1000000000E-11
 Cut-offs for Coulomb potential and fitted density:0.1000000000E-13
 Cut-off criterion for Coulomb multipole terms:    0.1000000000E-13
 Progressive Convergence parameter:                 0.000000000    
1
 ***************************************************************************************************



                                            ***************************
                                            *  C O M P U T A T I O N  *
                                            ***************************
  

 Number of elements of the density matrix on this node (used, total):        78        78



 ====================================================
 Numerical Integration : Voronoi Polyhedra (Te Velde)
 ====================================================
  
 General Accuracy Parameter :                         10.00

 Symmetry used in the points section:  ATOM  


 Summary of the Symmetry Unique Points:
 --------------------------------------
    Nr. of used Symmetry Operators                     1

    Points in the Atomic Spheres                      41
    Points in the Atomic Polyhedra                     0
    Points in the Outer Region                         0
    ----------------------------------------------------
    Total                                             41

    Sum of Weights                                 33854.777883

 Total nr. of points:         41
 Nr. of blocks:                1
 Block length:                41
 Nr. of dummy points:          0


 Test of Precision of the Numerical Integration Grid
 ===================================================

 Integral of the Total Core Density:                   0.00000000000000



 =====
 S C F
 =====
  

 CYCLE    1
 orbitals (Q,E):
 ---------------
 S :1...3            ( 1.00    -0.2465)  ( 0.00     0.0832)  ( 0.00     1.5113)
 P :1...1            ( 0.00     0.3992)
 D :1...1            ( 0.00     2.5571)

 CYCLE    2
 d-Pmat  mean:  0.53E-02
 imax=      2: -0.49E-01
 orbitals (Q,E):
 ---------------
 S :1...2            ( 1.00    -0.2394)  ( 0.00     0.0861)
 P :1...1            ( 0.00     0.4052)
 D :1...1            ( 0.00     2.5647)

 CYCLE    3
 d-Pmat  mean:  0.90E-03
 imax=      2:  0.81E-02
 orbitals (Q,E):
 ---------------
 S :1...2            ( 1.00    -0.2407)  ( 0.00     0.0854)
 P :1...1            ( 0.00     0.4041)
 D :1...1            ( 0.00     2.5633)

 CYCLE    4
 d-Pmat  mean:  0.90E-05
 imax=      2:  0.76E-04
 orbitals (Q,E):
 ---------------
 S :1...2            ( 1.00    -0.2408)  ( 0.00     0.0854)
 P :1...1            ( 0.00     0.4040)
 D :1...1            ( 0.00     2.5633)

 CYCLE    5
 d-Pmat  mean:  0.53E-07
 imax=      2:  0.49E-06
 orbitals (Q,E):
 ---------------
 S :1...2            ( 1.00    -0.2408)  ( 0.00     0.0854)
 P :1...1            ( 0.00     0.4040)
 D :1...1            ( 0.00     2.5633)

 CYCLE    6
 d-Pmat  mean:  0.18E-10
 imax=      2:  0.17E-09
 orbitals (Q,E):
 ---------------
 S :1...2            ( 1.00    -0.2408)  ( 0.00     0.0854)
 P :1...1            ( 0.00     0.4040)
 D :1...1            ( 0.00     2.5633)

 SCF CONVERGED

 CYCLE    7
1
 ***************************************************************************************************



                                                *******************
                                                *  R E S U L T S  *
                                                *******************
  
 *** Setting up for NEW gradients in focky
 *** Using FIT density in focky

 Orbital Energies, per Irrep and Spin:
 ======================================
                        Occup              E (au)              E (eV)       Diff (eV) with prev. cycle
                        -----      --------------------        ------       --------------------------
 S
               1        1.000     -0.24075070796811E+00        -6.551              -7.78E-11
               2        0.000      0.85399358124213E-01         2.324
               3        0.000      0.15172915356430E+01        41.288
 P
               1        0.000      0.40404564094609E+00        10.995
 D
               1        0.000      0.25633211988693E+01        69.752


 Partially Occupied:
               1 S                -0.24075070796811E+00
  
 LUMO :        2 S                 0.85399358124213E-01
  


 Orbital Energies, all Irreps
 ========================================

 Irrep        no.  (spin)   Occup              E (au)                E (eV)
 ---------------------------------------------------------------------------
 S             1             1.00       -0.24075070796811E+00        -6.5512
 S             2             0.00        0.85399358124213E-01         2.3238
 P             1             0.00        0.40404564094609E+00        10.9946
 S             3             0.00        0.15172915356430E+01        41.2876
 D             1             0.00        0.25633211988693E+01        69.7515


 All Electron Calculation, thus no Orbital Energies of the Core Orbitals are calculated



 =======================================
 M U L L I K E N   P O P U L A T I O N S
 =======================================
  
 The survey below gives for each atom:
 a) the total charge (Z minus electrons)
 b) the net spin polarization (nr of electrons spin-A minus spin-B)
 c) for each spin the atomic electron valence density (integrated) per L-value.

 Atom              Charge    Spin density          S         P         D         F
 ----              ------    ------------       ------    ------    ------    ------
 1 H               0.0000                       1.0000    0.0000    0.0000    0.0000

 Populations of individual BAS functions
 ----------------------------------------
 1 H            0.2116  0.6747  0.1137  0.0000  0.0000  0.0000  0.0000  0.0000  0.0000  0.0000
                0.0000  0.0000

 Gross Charges per Atom (Z minus electrons)
 ==========================================
             0.0000
 Net Total:  0.00000000


 Atom-Atom Population Matrix (off-diagonal elements not doubled)
 ===============================================================

     1 :     1.0000



 =============
 Dipole Moment  ***  (Debye)  ***
 =============
  
 Vector   :         0.00000000      0.00000000      0.00000000
 Magnitude:         0.00000000

 This molecular dipole moment is calculated with analytic integration



 =========================================
 Quadrupole Moment (Buckingham convention)  ***  (a.u.)  ***
 =========================================
  
      quad-xx        quad-xy        quad-xz        quad-yy        quad-yz        quad-zz
      0.00000000     0.00000000     0.00000000     0.00000000     0.00000000     0.00000000

 This molecular quadrupole moment is calculated with analytic integration



 ===============================================================================
 Electrostatic potential at the Nuclei due to valence electrons and other nuclei
 ===============================================================================
  
         Atom                  Potential
         ----                  ---------
     1)   H                   0.94618507
 
 
 ========================
 No memory problems found
 ========================
 
 Maximum number of active allocate calls:         360
 
 *******************************************************************************

                             A D F   E X I T
 NORMAL TERMINATION



 =================
 Timing Statistics
 =================
  
 Total Used :                     CPU=        0.11      System=        0.08     Elapsed=        0.96

 Calls  Section                     ( Mean, Percentage )
 ---------------------------------------------------------------------------------------------------
     3  ><      ................      0.00    0.00             0.00    3.75             0.01    4.43
     1  INIT    ................      0.01    5.26             0.01   10.00             0.11   11.03
     1  GEOMET  ................      0.01    6.14             0.02   26.25             0.11   11.84
     1  INPUTA  ................      0.00    0.00             0.00    2.50             0.02    1.70
     1  MAINSY  ................      0.00    4.39             0.00    5.00             0.13   13.72
     1  SYMFIT  ................      0.00    0.00             0.00    1.25             0.01    1.07
     1  CORORT  ................      0.00    0.88             0.00    0.00             0.01    1.05
     1  SYMORB  ................      0.00    0.00             0.00    0.00             0.00    0.45
     1  FITINT  ................      0.00    1.75             0.00    6.25             0.02    1.60
     1  CLSMAT  ................      0.00    0.00             0.00    1.25             0.00    0.16
     1  ORTHON  ................      0.00    0.88             0.00    1.25             0.01    1.36
     1  GENPT   ................      0.00    3.51             0.00    3.75             0.01    1.43
     1  PTBAS   ................      0.00    0.00             0.00    1.25             0.00    0.30
     7  FOCKY   ................      0.01   43.86             0.00   18.75             0.06   40.36
     7  FOCKTR  ................      0.00    0.88             0.00    2.50             0.00    0.22
     7  FOCKNM  ................      0.00    0.00             0.00    1.25             0.00    0.11
     7  SDIIS   ................      0.00    3.51             0.00    3.75             0.00    1.22
     7  EMERGE  ................      0.00   11.40             0.00    1.25             0.01    3.97
     1  COREPS  ................      0.00    0.00             0.00    5.00             0.00    0.38
     1  POPAN   ................      0.00    0.88             0.00    2.50             0.00    0.51
     1  DEBYE   ................      0.00    0.00             0.00    0.00             0.00    0.15
     1  QMPOT   ................      0.00    2.63             0.00    0.00             0.00    0.42
     1  EXIT PROCEDURE .........      0.02   14.04             0.00    2.50             0.02    2.54


 Currently Open Files (EXIT00)
 ====================

 Unit    Access Format  Status   Type       Ident (file)
 -------------------------------------------------------
   3      SEQ    FORM   TRANSP  NORMAL      LOGFILE
                                          ( logfile )


 Buffered I/O statistics
 =======================
 Memory available:                     67108864
 Number of records fitting in memory:     16131
 Input :   1.5% of                         2932  *4k bytes
 Output:  10.5% of                         1593  *4k bytes
 Records from serial files evicted:           0
                    others evicted:           0
 Hash table lookups:      12409 with          0 conflicts (  0.00%)

 ***************************************************************************************************
 (LOGFILE)
 <Sep02-2014> <09:35:01>  ADF 2013.01  RunTime: Sep02-2014 09:35:01  Nodes: 1  Procs: 1
 <Sep02-2014> <09:35:01>  Hydrogen (TZ2P)
 <Sep02-2014> <09:35:01>  RunType   : CREATE
 <Sep02-2014> <09:35:01>  Net Charge: 0 (Nuclei minus Electrons)
 <Sep02-2014> <09:35:01>  Symmetry  : ATOM
  Coordinates
    Atom         X           Y           Z   (Angstrom)
    1.H         0.000000    0.000000    0.000000
 <Sep02-2014> <09:35:01>  >>>> CORORT
 <Sep02-2014> <09:35:01>  >>>> FITINT
 <Sep02-2014> <09:35:01>  >>>> CLSMAT
 <Sep02-2014> <09:35:01>  >>>> ORTHON
 <Sep02-2014> <09:35:01>  >>>> GENPT
 <Sep02-2014> <09:35:01>  Acc.Num.Int.=  10.000
 <Sep02-2014> <09:35:01>  Block Length=  41
 <Sep02-2014> <09:35:01>  >>>> PTBAS
 <Sep02-2014> <09:35:01>  >>>> CYCLE
 <Sep02-2014> <09:35:01>    1
 <Sep02-2014> <09:35:01>    2  ErrMat   0.00268967  MaxEl -0.00268172
 <Sep02-2014> <09:35:01>    3  ErrMat   0.00071204  MaxEl  0.00070827
 <Sep02-2014> <09:35:01>    4  ErrMat   0.00001460  MaxEl  0.00001352
 <Sep02-2014> <09:35:02>    5  ErrMat   0.00000003  MaxEl -0.00000003
 <Sep02-2014> <09:35:02>    6  ErrMat   0.00000000  MaxEl  0.00000000
 <Sep02-2014> <09:35:02>  SCF converged
 <Sep02-2014> <09:35:02>    7  ErrMat   0.00000000  MaxEl  0.00000000
 <Sep02-2014> <09:35:02>   Solutions with partially occupied orbitals may not be
 <Sep02-2014> <09:35:02>   lowest in energy. You might consider lowering the
 <Sep02-2014> <09:35:02>   symmetry in the input and explicitly specifying integer
 <Sep02-2014> <09:35:02>   occupations. In that case always check that you obtain
 <Sep02-2014> <09:35:02>   an aufbau solution.
 <Sep02-2014> <09:35:02>  >>>> POPAN
 <Sep02-2014> <09:35:02>  >>>> DEBYE
 <Sep02-2014> <09:35:02>  NORMAL TERMINATION
 <Sep02-2014> <09:35:02>  END
(INPUT FILE)
Create N   file=/global/apps/adf/2013.01c/atomicdata/TZ2P/N.1s
xc
gga PW91
End
End Input

 *******************************************************************************
 *                                                                             *
 *  -------------------------------------                                      *
 *   Amsterdam Density Functional  (ADF)         2013.01   April 2, 2013       *
 *  -------------------------------------                                      *
 *                                               Build 201311142142            *
 *                                                                             *
 *                                                                             *
 *                              =================                              *
 *                              |               |                              *
 *                              |     A D F     |                              *
 *                              |               |                              *
 *                              =================                              *
 *                                                                             *
 *                                                                             *
 *   Online information and documentation:  http://www.scm.com                 *
 *   E-mail:  support@scm.com   info@scm.com                                   *
 *                                                                             *
 *   Scientific publications using ADF results must be properly referenced     *
 *   See the User Manuals (or the web site) for recommended citations          *
 *   The terms and conditions of the End User License Agreement apply to       *
 *   the use of ADF, http://www.scm.com/Sales/LicAgreement.html                *
 *                                                                             *
 **********************  x86_64_linux_intel / intelmpi  ************************
 
 Licensed to: Dr. Steinar Henden / Computer Centre University of Troms? / Troms? / NO
 SCM User ID: u7207
  
 ADF 2013.01  RunTime: Sep02-2014 09:35:02  Nodes: 1  Procs: 1

 Temporary files are created in /global/work/espent/2177692.stallo-adm.uit.no/kid_0.tm5PiM

 Nitrogen (TZ2P, 1s frozen)



 ===========================
 A T T A C H E D   F I L E S
 ===========================
  
 CREATE - Data File:    /global/apps/adf/2013.01c/atomicdata/TZ2P/N.1s
                        Nitrogen (TZ2P, 1s frozen)



 ===============================
 M O D E L   P A R A M E T E R S
 ===============================
  
 DENSITY FUNCTIONAL POTENTIAL (scf)
    LDA:                               VWN                                      
    Gradient Corrections:              PW91x PW91c                             == Not Default ==

 SPIN  (restricted / unrestr.)
    Molecule:                          Restricted                               

 OTHER ASPECTS
    Relativistic Corrections:          ---                                      

    Nuclear Charge Density Model:      Point Charge Nuclei                                                                                                                                                                                     
    Core Treatment:                    Frozen Orbital(s)                        

    Hyperfine or Zeeman Interaction:   ---                                      



 =====================================
 S Y M M E T R Y ,   E L E C T R O N S
 =====================================
  
 Symmetry: ATOM

 Irreducible Representations, including subspecies
 -------------------------------------------------
 S
 P:x  P:y  P:z
 D:z2  D:x2-y2  D:xy  D:xz  D:yz
 F:z3  F:z  F:xyz  F:z2x  F:z2y  F:x  F:y


 Configuration of Valence Electrons
 ==================================

          Occupation Numbers
          -------------------------------------------------
 S        2
 P        3
 D        0
 F        0
          -------------------------------------------------

 Total:   5

 Net Charge: 0 (Nuclei minus Electrons)

 Preset values for MO occupations will be applied through SCF cycle no. 1000000
 Thereafter, the program will assign electrons to MOs that are spatially
 similar to the occupied MOs in a "reference" cycle ("KeepOrbitals").
 The reference cycle is always the PREVIOUS cycle: it will evolve with
 the SCF procedure.



 ================================
 (Slater-type)  F U N C T I O N S  ***  (Basis and Fit)  ***
 ================================
  

 Atom Type    1  (N)
 ==============

 Valence Basis Sets:   9
 -----------------------
   1 S    6.380000
   2 S    1.500000
   2 S    2.500000
   2 S    5.150000
   2 P    1.000000
   2 P    1.880000
   2 P    3.680000
   3 D    2.200000
   4 F    3.300000

 Frozen Core Shells
 ------------------
    S:  1

 Charge Fitting Sets (for the computation of the Coulomb Potential):  20
 -----------------------------------------------------------------------
   1 S   12.760000
   2 S   13.770000
   2 S    9.060000
   2 S    5.970000
   3 S    5.770000
   3 S    4.050000
   3 S    2.850000
   3 S    2.000000
   2 P   10.060000
   2 P    6.180000
   3 P    5.600000
   3 P    3.710000
   3 P    2.460000
   3 D    8.380000
   3 D    5.200000
   3 D    3.220000
   3 D    2.000000
   4 F    5.800000
   4 F    3.600000
   5 G    4.500000


 BAS: List of all Elementary Cartesian Basis Functions
 =====================================================

 The numbering in the list below (to the right of the function characteristics) is referred
 to in print-outs of MO eigenvectors and Mulliken populations in the BAS representation
 (as contrasted to the SFO representation).

 Notes:
 1. The functions are characterized by a polynomial prefactor (powers of x,y,z and r) and
    an exponential decay factor alpha.
 2. Since the basis sets are specific for an atom TYPE, the individual functions occur on
    all atoms of that type.
 3. The word 'Core' in the left margin signals that it is a Core Function (CF) : not a
    degree of freedom in the valence set, but only used to ensure orthogonalization of
    the other valence basis functions on the frozen Core Orbitals.


 (power of) X  Y  Z  R     Alpha  on Atom
            ==========     =====     ==========

 N                                    1
                                  ---------------------------------------------------------------------------
    Core    0  0  0  0     6.380      1
            0  0  0  1     1.500      2
            0  0  0  1     2.500      3
            0  0  0  1     5.150      4
            1  0  0  0     1.000      5
            0  1  0  0     1.000      6
            0  0  1  0     1.000      7
            1  0  0  0     1.880      8
            0  1  0  0     1.880      9
            0  0  1  0     1.880     10
            1  0  0  0     3.680     11
            0  1  0  0     3.680     12
            0  0  1  0     3.680     13
            2  0  0  0     2.200     14
            1  1  0  0     2.200     15
            1  0  1  0     2.200     16
            0  2  0  0     2.200     17
            0  1  1  0     2.200     18
            0  0  2  0     2.200     19
            3  0  0  0     3.300     20
            2  1  0  0     3.300     21
            2  0  1  0     3.300     22
            1  2  0  0     3.300     23
            1  1  1  0     3.300     24
            1  0  2  0     3.300     25
            0  3  0  0     3.300     26
            0  2  1  0     3.300     27
            0  1  2  0     3.300     28
            0  0  3  0     3.300     29

 Total number of charge fitting functions (nprimf)        82
 Total number of Cartesian basis functions (naos)         29
 Total number of Cartesian core functions  (ncos)          1



 BAS: List of all Elementary Cartesian Basis Functions
 =====================================================

 The numbering in the list below (to the right of the function characteristics) is referred
 to in print-outs of MO eigenvectors and Mulliken populations in the BAS representation
 (as contrasted to the SFO representation).

 Notes:
 1. The functions are characterized by a polynomial prefactor (powers of x,y,z and r) and
    an exponential decay factor alpha.
 2. Since the basis sets are specific for an atom TYPE, the individual functions occur on
    all atoms of that type.
 3. The word 'Core' in the left margin signals that it is a Core Function (CF) : not a
    degree of freedom in the valence set, but only used to ensure orthogonalization of
    the other valence basis functions on the frozen Core Orbitals.


 (power of) X  Y  Z  R     Alpha  on Atom
            ==========     =====     ==========

 N                                    1
                                  ---------------------------------------------------------------------------
    Core    0  0  0  0     6.380      1
            0  0  0  1     1.500      2
            0  0  0  1     2.500      3
            0  0  0  1     5.150      4
            1  0  0  0     1.000      5
            0  1  0  0     1.000      6
            0  0  1  0     1.000      7
            1  0  0  0     1.880      8
            0  1  0  0     1.880      9
            0  0  1  0     1.880     10
            1  0  0  0     3.680     11
            0  1  0  0     3.680     12
            0  0  1  0     3.680     13
            2  0  0  0     2.200     14
            1  1  0  0     2.200     15
            1  0  1  0     2.200     16
            0  2  0  0     2.200     17
            0  1  1  0     2.200     18
            0  0  2  0     2.200     19
            3  0  0  0     3.300     20
            2  1  0  0     3.300     21
            2  0  1  0     3.300     22
            1  2  0  0     3.300     23
            1  1  1  0     3.300     24
            1  0  2  0     3.300     25
            0  3  0  0     3.300     26
            0  2  1  0     3.300     27
            0  1  2  0     3.300     28
            0  0  3  0     3.300     29
1
 ***************************************************************************************************



                                              ***********************
                                              *  T E C H N I C A L  *
                                              ***********************
  



 =============================================================
 P A R A L L E L I Z A T I O N  and  V E C T O R I Z A T I O N
 =============================================================
  
 Nr of parallel processes:                                1
 Maximum vector length in NumInt loops:                 128



 ===============
 I O  vs.  C P U  ***  (store numerical data on disk or recalculate)  ***
 ===============
  
 Basis functions:   recalculate when needed
 Fit functions:     recalculate when needed

 IO buffersize (Mb):                                     64.000000



 =====================
 S C F   U P D A T E S
 =====================
  
 Max. nr. of cycles:                               300
 Convergence criterion:                              0.0000000100
   secondary criterion:                              0.0000000100

 Mix parameter (when DIIS does not apply):           0.2000000000
 Special mix parameter for the first cycle:          1.0000000000


 DIIS (Direct Inversion in Iteration Space)
    Replace damping when SCF Error is below:         0.5000000000
    Apply anyway after SCF cycle:
                                                     5
    (Max.) nr. of expansion vectors:                10

    Upperbound on expansion coefficients:            5.0000000000
    (when exceeded, IterationSpace is re-built)
    2nd Upperbound on coefficients:                 25.0000000000
    (when exceeded, simple damping will be used)
 Automatic ElectronSmearing (in case of problematic SCF convergence) disabled



 =================
 P R E C I S I O N  ***  (General: NumInt, NeglectFunctionTails, ...)  ***
 =================
  

 NumInt:           Target precision:                10.0000000000
 -------           Initial precision:               10.0000000000
                   Min. precision (optimization):   10.0000000000

 Neglect Functions:          Basis functions:        0.1000000000E-11
 ------------------          Fit functions:          0.1000000000E-11



 ===========================
 L I N E A R   S C A L I N G
 ===========================
  

 Cut-off radii density fit:                        0.1000000000E-13
 Overlap cut-off criterion AO matrix elements:     0.1000000000E-11
 Cut-offs for Coulomb potential and fitted density:0.1000000000E-13
 Cut-off criterion for Coulomb multipole terms:    0.1000000000E-13
 Progressive Convergence parameter:                 0.000000000    
1
 ***************************************************************************************************



                                            ***************************
                                            *  C O M P U T A T I O N  *
                                            ***************************
  

 Number of elements of the density matrix on this node (used, total):       435       435



 ====================================================
 Numerical Integration : Voronoi Polyhedra (Te Velde)
 ====================================================
  
 General Accuracy Parameter :                         10.00

 Symmetry used in the points section:  ATOM  


 Summary of the Symmetry Unique Points:
 --------------------------------------
    Nr. of used Symmetry Operators                     1

    Points in the Atomic Spheres                      52
    Points in the Atomic Polyhedra                     0
    Points in the Outer Region                         0
    ----------------------------------------------------
    Total                                             52

    Sum of Weights                                 58501.056183

 Total nr. of points:         52
 Nr. of blocks:                1
 Block length:                52
 Nr. of dummy points:          0


 Test of Precision of the Numerical Integration Grid
 ===================================================

 Integral of the Total Core Density:                   1.99999999977024
 Relative Error:                                      -1.149E-10



 =====
 S C F
 =====
  

 CYCLE    1
 orbitals (Q,E):
 ---------------
 S :1...3            ( 2.00    -0.6901)  ( 0.00     0.5909)  ( 0.00    12.4672)
 P :1...3            ( 3.00    -0.2690)  ( 0.00     0.2808)  ( 0.00     3.2751)
 D :1...1            ( 0.00     1.2367)
 F :1...1            ( 0.00     3.9978)

 CYCLE    2
 d-Pmat  mean:  0.33E-02
 imax=      3: -0.20E-01
 orbitals (Q,E):
 ---------------
 S :1...2            ( 2.00    -0.6796)  ( 0.00     0.5982)
 P :1...2            ( 3.00    -0.2590)  ( 0.00     0.2856)
 D :1...1            ( 0.00     1.2448)
 F :1...1            ( 0.00     4.0073)

 CYCLE    3
 d-Pmat  mean:  0.17E-02
 imax=      3:  0.10E-01
 orbitals (Q,E):
 ---------------
 S :1...2            ( 2.00    -0.6847)  ( 0.00     0.5947)
 P :1...2            ( 3.00    -0.2639)  ( 0.00     0.2832)
 D :1...1            ( 0.00     1.2409)
 F :1...1            ( 0.00     4.0027)

 CYCLE    4
 d-Pmat  mean:  0.61E-05
 imax=      3:  0.35E-04
 orbitals (Q,E):
 ---------------
 S :1...2            ( 2.00    -0.6847)  ( 0.00     0.5946)
 P :1...2            ( 3.00    -0.2639)  ( 0.00     0.2832)
 D :1...1            ( 0.00     1.2409)
 F :1...1            ( 0.00     4.0027)

 CYCLE    5
 d-Pmat  mean:  0.17E-06
 imax=      3: -0.10E-05
 orbitals (Q,E):
 ---------------
 S :1...2            ( 2.00    -0.6847)  ( 0.00     0.5946)
 P :1...2            ( 3.00    -0.2639)  ( 0.00     0.2832)
 D :1...1            ( 0.00     1.2409)
 F :1...1            ( 0.00     4.0027)

 CYCLE    6
 d-Pmat  mean:  0.13E-08
 imax=      3: -0.76E-08
 orbitals (Q,E):
 ---------------
 S :1...2            ( 2.00    -0.6847)  ( 0.00     0.5946)
 P :1...2            ( 3.00    -0.2639)  ( 0.00     0.2832)
 D :1...1            ( 0.00     1.2409)
 F :1...1            ( 0.00     4.0027)

 SCF CONVERGED

 CYCLE    7
1
 ***************************************************************************************************



                                                *******************
                                                *  R E S U L T S  *
                                                *******************
  
 *** Setting up for NEW gradients in focky
 *** Using FIT density in focky

 Orbital Energies, per Irrep and Spin:
 ======================================
                        Occup              E (au)              E (eV)       Diff (eV) with prev. cycle
                        -----      --------------------        ------       --------------------------
 S
               1        2.000     -0.68471279171964E+00       -18.632               4.02E-10
               2        0.000      0.59464956564582E+00        16.181
               3        0.000      0.12476935424032E+02       339.515
 P
               1        3.000     -0.26387873848279E+00        -7.181               3.81E-10
               2        0.000      0.28322757385459E+00         7.707
               3        0.000      0.32825081522605E+01        89.322
 D
               1        0.000      0.12408908712161E+01        33.766
 F
               1        0.000      0.40026632677273E+01       108.918


 Partially Occupied:
               1 P                -0.26387873848279E+00
  
 HOMO :        1 S                -0.68471279171964E+00
 LUMO :        2 P                 0.28322757385459E+00
  


 Orbital Energies, all Irreps
 ========================================

 Irrep        no.  (spin)   Occup              E (au)                E (eV)
 ---------------------------------------------------------------------------
 S             1             2.00       -0.68471279171964E+00       -18.6320
 P             1             3.00       -0.26387873848279E+00        -7.1805
 P             2             0.00        0.28322757385459E+00         7.7070
 S             2             0.00        0.59464956564582E+00        16.1812
 D             1             0.00        0.12408908712161E+01        33.7664
 P             3             0.00        0.32825081522605E+01        89.3216
 F             1             0.00        0.40026632677273E+01       108.9180
 S             3             0.00        0.12476935424032E+02       339.5147


 Orbital Energies of the Core Orbitals:
 ======================================
 (Note that the atoms are grouped by atomtype, see the labels, and may hence NOT be in input order)

 AtomType  Orbital  Atom                   E (au)                        E (eV)
 --------  -------  ----           --------------------        ----------------
 N           1S        1          -0.14154956548018E+02                -385.176



 =======================================
 M U L L I K E N   P O P U L A T I O N S
 =======================================
  
 The survey below gives for each atom:
 a) the total charge (Z minus electrons)
 b) the net spin polarization (nr of electrons spin-A minus spin-B)
 c) for each spin the atomic electron valence density (integrated) per L-value.

 Atom              Charge    Spin density          S         P         D         F
 ----              ------    ------------       ------    ------    ------    ------
 1 N               0.0000                       2.0000    3.0000    0.0000    0.0000

 Populations of individual BAS functions
 ----------------------------------------
 1 N            0.0004  0.9056  1.1472 -0.0532  0.2928  0.2928  0.2928  0.5649  0.5649  0.5649
                0.1423  0.1423  0.1423  0.0000  0.0000  0.0000  0.0000  0.0000  0.0000  0.0000
                0.0000  0.0000  0.0000  0.0000  0.0000  0.0000  0.0000  0.0000  0.0000

 Gross Charges per Atom (Z minus electrons)
 ==========================================
             0.0000
 Net Total:  0.00000000


 Atom-Atom Population Matrix (off-diagonal elements not doubled)
 ===============================================================

     1 :     5.0000



 =============
 Dipole Moment  ***  (Debye)  ***
 =============
  
 Vector   :         0.00000000      0.00000000      0.00000000
 Magnitude:         0.00000000

 This molecular dipole moment is calculated with analytic integration



 =========================================
 Quadrupole Moment (Buckingham convention)  ***  (a.u.)  ***
 =========================================
  
      quad-xx        quad-xy        quad-xz        quad-yy        quad-yz        quad-zz
      0.00000000     0.00000000     0.00000000     0.00000000     0.00000000     0.00000000

 This molecular quadrupole moment is calculated with analytic integration



 ===============================================================================
 Electrostatic potential at the Nuclei due to valence electrons and other nuclei
 ===============================================================================
  
         Atom                  Potential
         ----                  ---------
     1)   N                   5.03023583
 
 
 ========================
 No memory problems found
 ========================
 
 Maximum number of active allocate calls:         457
 
 *******************************************************************************

                             A D F   E X I T
 NORMAL TERMINATION



 =================
 Timing Statistics
 =================
  
 Total Used :                     CPU=        0.13      System=        0.08     Elapsed=        0.30

 Calls  Section                     ( Mean, Percentage )
 ---------------------------------------------------------------------------------------------------
     3  ><      ................      0.00    0.00             0.00    2.47             0.00    1.51
     1  INIT    ................      0.01    6.30             0.00    6.17             0.04   13.85
     1  GEOMET  ................      0.00    3.15             0.02   24.69             0.04   12.09
     1  INPUTA  ................      0.00    0.79             0.00    2.47             0.00    0.95
     1  MAINSY  ................      0.00    3.15             0.00    6.17             0.01    4.72
     1  SYMFIT  ................      0.00    0.00             0.00    0.00             0.00    0.11
     1  CORORT  ................      0.00    0.00             0.00    1.23             0.00    0.60
     1  SYMORB  ................      0.00    0.79             0.00    0.00             0.00    0.49
     1  FITINT  ................      0.00    3.15             0.00    4.94             0.02    5.43
     1  CLSMAT  ................      0.00    0.00             0.00    1.23             0.00    0.53
     1  ORTHON  ................      0.00    0.79             0.00    0.00             0.00    1.01
     1  GENPT   ................      0.00    2.36             0.00    6.17             0.01    3.75
     1  PTBAS   ................      0.00    0.79             0.00    2.47             0.00    1.07
     7  FOCKY   ................      0.01   44.88             0.00   20.99             0.01   27.18
     7  FOCKTR  ................      0.00    0.79             0.00    1.23             0.00    0.81
     7  FOCKNM  ................      0.00    0.00             0.00    0.00             0.00    0.06
     7  SDIIS   ................      0.00    2.36             0.00    7.41             0.00    4.03
     7  EMERGE  ................      0.00   11.02             0.00    6.17             0.00    9.17
     1  COREPS  ................      0.00    2.36             0.00    1.23             0.00    1.66
     1  POPAN   ................      0.00    0.79             0.00    3.70             0.01    1.75
     1  DEBYE   ................      0.00    0.79             0.00    0.00             0.00    0.55
     1  QMPOT   ................      0.00    1.57             0.00    0.00             0.00    0.94
     1  EXIT PROCEDURE .........      0.02   14.17             0.00    1.23             0.02    7.74


 Currently Open Files (EXIT00)
 ====================

 Unit    Access Format  Status   Type       Ident (file)
 -------------------------------------------------------
   3      SEQ    FORM   TRANSP  NORMAL      LOGFILE
                                          ( logfile )


 Buffered I/O statistics
 =======================
 Memory available:                     67108864
 Number of records fitting in memory:     16131
 Input :   1.2% of                         3817  *4k bytes
 Output:  10.2% of                         1913  *4k bytes
 Records from serial files evicted:           0
                    others evicted:           0
 Hash table lookups:      15776 with          0 conflicts (  0.00%)

 ***************************************************************************************************
 (LOGFILE)
 <Sep02-2014> <09:35:01>  ADF 2013.01  RunTime: Sep02-2014 09:35:01  Nodes: 1  Procs: 1
 <Sep02-2014> <09:35:01>  Hydrogen (TZ2P)
 <Sep02-2014> <09:35:01>  RunType   : CREATE
 <Sep02-2014> <09:35:01>  Net Charge: 0 (Nuclei minus Electrons)
 <Sep02-2014> <09:35:01>  Symmetry  : ATOM
  Coordinates
    Atom         X           Y           Z   (Angstrom)
    1.H         0.000000    0.000000    0.000000
 <Sep02-2014> <09:35:01>  >>>> CORORT
 <Sep02-2014> <09:35:01>  >>>> FITINT
 <Sep02-2014> <09:35:01>  >>>> CLSMAT
 <Sep02-2014> <09:35:01>  >>>> ORTHON
 <Sep02-2014> <09:35:01>  >>>> GENPT
 <Sep02-2014> <09:35:01>  Acc.Num.Int.=  10.000
 <Sep02-2014> <09:35:01>  Block Length=  41
 <Sep02-2014> <09:35:01>  >>>> PTBAS
 <Sep02-2014> <09:35:01>  >>>> CYCLE
 <Sep02-2014> <09:35:01>    1
 <Sep02-2014> <09:35:01>    2  ErrMat   0.00268967  MaxEl -0.00268172
 <Sep02-2014> <09:35:01>    3  ErrMat   0.00071204  MaxEl  0.00070827
 <Sep02-2014> <09:35:01>    4  ErrMat   0.00001460  MaxEl  0.00001352
 <Sep02-2014> <09:35:02>    5  ErrMat   0.00000003  MaxEl -0.00000003
 <Sep02-2014> <09:35:02>    6  ErrMat   0.00000000  MaxEl  0.00000000
 <Sep02-2014> <09:35:02>  SCF converged
 <Sep02-2014> <09:35:02>    7  ErrMat   0.00000000  MaxEl  0.00000000
 <Sep02-2014> <09:35:02>   Solutions with partially occupied orbitals may not be
 <Sep02-2014> <09:35:02>   lowest in energy. You might consider lowering the
 <Sep02-2014> <09:35:02>   symmetry in the input and explicitly specifying integer
 <Sep02-2014> <09:35:02>   occupations. In that case always check that you obtain
 <Sep02-2014> <09:35:02>   an aufbau solution.
 <Sep02-2014> <09:35:02>  >>>> POPAN
 <Sep02-2014> <09:35:02>  >>>> DEBYE
 <Sep02-2014> <09:35:02>  NORMAL TERMINATION
 <Sep02-2014> <09:35:02>  END
 <Sep02-2014> <09:35:02>  ADF 2013.01  RunTime: Sep02-2014 09:35:02  Nodes: 1  Procs: 1
 <Sep02-2014> <09:35:02>  Nitrogen (TZ2P, 1s frozen)
 <Sep02-2014> <09:35:02>  RunType   : CREATE
 <Sep02-2014> <09:35:02>  Net Charge: 0 (Nuclei minus Electrons)
 <Sep02-2014> <09:35:02>  Symmetry  : ATOM
  Coordinates
    Atom         X           Y           Z   (Angstrom)
    1.N         0.000000    0.000000    0.000000
 <Sep02-2014> <09:35:02>  >>>> CORORT
 <Sep02-2014> <09:35:02>  >>>> FITINT
 <Sep02-2014> <09:35:02>  >>>> CLSMAT
 <Sep02-2014> <09:35:02>  >>>> ORTHON
 <Sep02-2014> <09:35:02>  >>>> GENPT
 <Sep02-2014> <09:35:02>  Acc.Num.Int.=  10.000
 <Sep02-2014> <09:35:02>  Block Length=  52
 <Sep02-2014> <09:35:02>  >>>> PTBAS
 <Sep02-2014> <09:35:02>  >>>> CYCLE
 <Sep02-2014> <09:35:02>    1
 <Sep02-2014> <09:35:02>    2  ErrMat   0.01422934  MaxEl -0.00987426
 <Sep02-2014> <09:35:02>    3  ErrMat   0.01477516  MaxEl  0.01024472
 <Sep02-2014> <09:35:02>    4  ErrMat   0.00004760  MaxEl  0.00003200
 <Sep02-2014> <09:35:02>    5  ErrMat   0.00000140  MaxEl -0.00000094
 <Sep02-2014> <09:35:02>    6  ErrMat   0.00000001  MaxEl -0.00000001
 <Sep02-2014> <09:35:02>  SCF converged
 <Sep02-2014> <09:35:02>    7  ErrMat   0.00000000  MaxEl  0.00000000
 <Sep02-2014> <09:35:02>   Solutions with partially occupied orbitals may not be
 <Sep02-2014> <09:35:02>   lowest in energy. You might consider lowering the
 <Sep02-2014> <09:35:02>   symmetry in the input and explicitly specifying integer
 <Sep02-2014> <09:35:02>   occupations. In that case always check that you obtain
 <Sep02-2014> <09:35:02>   an aufbau solution.
 <Sep02-2014> <09:35:02>  >>>> POPAN
 <Sep02-2014> <09:35:02>  >>>> DEBYE
 <Sep02-2014> <09:35:02>  NORMAL TERMINATION
 <Sep02-2014> <09:35:02>  END
(INPUT FILE)
Create O   file=/global/apps/adf/2013.01c/atomicdata/TZ2P/O.1s
xc
gga PW91
End
End Input

 *******************************************************************************
 *                                                                             *
 *  -------------------------------------                                      *
 *   Amsterdam Density Functional  (ADF)         2013.01   April 2, 2013       *
 *  -------------------------------------                                      *
 *                                               Build 201311142142            *
 *                                                                             *
 *                                                                             *
 *                              =================                              *
 *                              |               |                              *
 *                              |     A D F     |                              *
 *                              |               |                              *
 *                              =================                              *
 *                                                                             *
 *                                                                             *
 *   Online information and documentation:  http://www.scm.com                 *
 *   E-mail:  support@scm.com   info@scm.com                                   *
 *                                                                             *
 *   Scientific publications using ADF results must be properly referenced     *
 *   See the User Manuals (or the web site) for recommended citations          *
 *   The terms and conditions of the End User License Agreement apply to       *
 *   the use of ADF, http://www.scm.com/Sales/LicAgreement.html                *
 *                                                                             *
 **********************  x86_64_linux_intel / intelmpi  ************************
 
 Licensed to: Dr. Steinar Henden / Computer Centre University of Troms? / Troms? / NO
 SCM User ID: u7207
  
 ADF 2013.01  RunTime: Sep02-2014 09:35:02  Nodes: 1  Procs: 1

 Temporary files are created in /global/work/espent/2177692.stallo-adm.uit.no/kid_0.bCowIa

 Oxygen (TZ2P, 1s frozen)



 ===========================
 A T T A C H E D   F I L E S
 ===========================
  
 CREATE - Data File:    /global/apps/adf/2013.01c/atomicdata/TZ2P/O.1s
                        Oxygen (TZ2P, 1s frozen)



 ===============================
 M O D E L   P A R A M E T E R S
 ===============================
  
 DENSITY FUNCTIONAL POTENTIAL (scf)
    LDA:                               VWN                                      
    Gradient Corrections:              PW91x PW91c                             == Not Default ==

 SPIN  (restricted / unrestr.)
    Molecule:                          Restricted                               

 OTHER ASPECTS
    Relativistic Corrections:          ---                                      

    Nuclear Charge Density Model:      Point Charge Nuclei                                                                                                                                                                                     
    Core Treatment:                    Frozen Orbital(s)                        

    Hyperfine or Zeeman Interaction:   ---                                      



 =====================================
 S Y M M E T R Y ,   E L E C T R O N S
 =====================================
  
 Symmetry: ATOM

 Irreducible Representations, including subspecies
 -------------------------------------------------
 S
 P:x  P:y  P:z
 D:z2  D:x2-y2  D:xy  D:xz  D:yz
 F:z3  F:z  F:xyz  F:z2x  F:z2y  F:x  F:y


 Configuration of Valence Electrons
 ==================================

          Occupation Numbers
          -------------------------------------------------
 S        2
 P        4
 D        0
 F        0
          -------------------------------------------------

 Total:   6

 Net Charge: 0 (Nuclei minus Electrons)

 Preset values for MO occupations will be applied through SCF cycle no. 1000000
 Thereafter, the program will assign electrons to MOs that are spatially
 similar to the occupied MOs in a "reference" cycle ("KeepOrbitals").
 The reference cycle is always the PREVIOUS cycle: it will evolve with
 the SCF procedure.



 ================================
 (Slater-type)  F U N C T I O N S  ***  (Basis and Fit)  ***
 ================================
  

 Atom Type    1  (O)
 ==============

 Valence Basis Sets:   9
 -----------------------
   1 S    7.360000
   2 S    1.720000
   2 S    2.880000
   2 S    7.580000
   2 P    1.120000
   2 P    2.080000
   2 P    4.080000
   3 D    2.000000
   4 F    3.000000

 Frozen Core Shells
 ------------------
    S:  1

 Charge Fitting Sets (for the computation of the Coulomb Potential):  20
 -----------------------------------------------------------------------
   1 S   14.720000
   2 S   15.800000
   2 S   10.350000
   2 S    6.780000
   3 S    6.540000
   3 S    4.570000
   3 S    3.200000
   3 S    2.240000
   2 P   11.440000
   2 P    7.050000
   3 P    6.420000
   3 P    4.270000
   3 P    2.840000
   3 D   10.360000
   3 D    6.220000
   3 D    3.730000
   3 D    2.240000
   4 F    6.200000
   4 F    3.700000
   5 G    4.500000


 BAS: List of all Elementary Cartesian Basis Functions
 =====================================================

 The numbering in the list below (to the right of the function characteristics) is referred
 to in print-outs of MO eigenvectors and Mulliken populations in the BAS representation
 (as contrasted to the SFO representation).

 Notes:
 1. The functions are characterized by a polynomial prefactor (powers of x,y,z and r) and
    an exponential decay factor alpha.
 2. Since the basis sets are specific for an atom TYPE, the individual functions occur on
    all atoms of that type.
 3. The word 'Core' in the left margin signals that it is a Core Function (CF) : not a
    degree of freedom in the valence set, but only used to ensure orthogonalization of
    the other valence basis functions on the frozen Core Orbitals.


 (power of) X  Y  Z  R     Alpha  on Atom
            ==========     =====     ==========

 O                                    1
                                  ---------------------------------------------------------------------------
    Core    0  0  0  0     7.360      1
            0  0  0  1     1.720      2
            0  0  0  1     2.880      3
            0  0  0  1     7.580      4
            1  0  0  0     1.120      5
            0  1  0  0     1.120      6
            0  0  1  0     1.120      7
            1  0  0  0     2.080      8
            0  1  0  0     2.080      9
            0  0  1  0     2.080     10
            1  0  0  0     4.080     11
            0  1  0  0     4.080     12
            0  0  1  0     4.080     13
            2  0  0  0     2.000     14
            1  1  0  0     2.000     15
            1  0  1  0     2.000     16
            0  2  0  0     2.000     17
            0  1  1  0     2.000     18
            0  0  2  0     2.000     19
            3  0  0  0     3.000     20
            2  1  0  0     3.000     21
            2  0  1  0     3.000     22
            1  2  0  0     3.000     23
            1  1  1  0     3.000     24
            1  0  2  0     3.000     25
            0  3  0  0     3.000     26
            0  2  1  0     3.000     27
            0  1  2  0     3.000     28
            0  0  3  0     3.000     29

 Total number of charge fitting functions (nprimf)        82
 Total number of Cartesian basis functions (naos)         29
 Total number of Cartesian core functions  (ncos)          1



 BAS: List of all Elementary Cartesian Basis Functions
 =====================================================

 The numbering in the list below (to the right of the function characteristics) is referred
 to in print-outs of MO eigenvectors and Mulliken populations in the BAS representation
 (as contrasted to the SFO representation).

 Notes:
 1. The functions are characterized by a polynomial prefactor (powers of x,y,z and r) and
    an exponential decay factor alpha.
 2. Since the basis sets are specific for an atom TYPE, the individual functions occur on
    all atoms of that type.
 3. The word 'Core' in the left margin signals that it is a Core Function (CF) : not a
    degree of freedom in the valence set, but only used to ensure orthogonalization of
    the other valence basis functions on the frozen Core Orbitals.


 (power of) X  Y  Z  R     Alpha  on Atom
            ==========     =====     ==========

 O                                    1
                                  ---------------------------------------------------------------------------
    Core    0  0  0  0     7.360      1
            0  0  0  1     1.720      2
            0  0  0  1     2.880      3
            0  0  0  1     7.580      4
            1  0  0  0     1.120      5
            0  1  0  0     1.120      6
            0  0  1  0     1.120      7
            1  0  0  0     2.080      8
            0  1  0  0     2.080      9
            0  0  1  0     2.080     10
            1  0  0  0     4.080     11
            0  1  0  0     4.080     12
            0  0  1  0     4.080     13
            2  0  0  0     2.000     14
            1  1  0  0     2.000     15
            1  0  1  0     2.000     16
            0  2  0  0     2.000     17
            0  1  1  0     2.000     18
            0  0  2  0     2.000     19
            3  0  0  0     3.000     20
            2  1  0  0     3.000     21
            2  0  1  0     3.000     22
            1  2  0  0     3.000     23
            1  1  1  0     3.000     24
            1  0  2  0     3.000     25
            0  3  0  0     3.000     26
            0  2  1  0     3.000     27
            0  1  2  0     3.000     28
            0  0  3  0     3.000     29
1
 ***************************************************************************************************



                                              ***********************
                                              *  T E C H N I C A L  *
                                              ***********************
  



 =============================================================
 P A R A L L E L I Z A T I O N  and  V E C T O R I Z A T I O N
 =============================================================
  
 Nr of parallel processes:                                1
 Maximum vector length in NumInt loops:                 128



 ===============
 I O  vs.  C P U  ***  (store numerical data on disk or recalculate)  ***
 ===============
  
 Basis functions:   recalculate when needed
 Fit functions:     recalculate when needed

 IO buffersize (Mb):                                     64.000000



 =====================
 S C F   U P D A T E S
 =====================
  
 Max. nr. of cycles:                               300
 Convergence criterion:                              0.0000000100
   secondary criterion:                              0.0000000100

 Mix parameter (when DIIS does not apply):           0.2000000000
 Special mix parameter for the first cycle:          1.0000000000


 DIIS (Direct Inversion in Iteration Space)
    Replace damping when SCF Error is below:         0.5000000000
    Apply anyway after SCF cycle:
                                                     5
    (Max.) nr. of expansion vectors:                10

    Upperbound on expansion coefficients:            5.0000000000
    (when exceeded, IterationSpace is re-built)
    2nd Upperbound on coefficients:                 25.0000000000
    (when exceeded, simple damping will be used)
 Automatic ElectronSmearing (in case of problematic SCF convergence) disabled



 =================
 P R E C I S I O N  ***  (General: NumInt, NeglectFunctionTails, ...)  ***
 =================
  

 NumInt:           Target precision:                10.0000000000
 -------           Initial precision:               10.0000000000
                   Min. precision (optimization):   10.0000000000

 Neglect Functions:          Basis functions:        0.1000000000E-11
 ------------------          Fit functions:          0.1000000000E-11



 ===========================
 L I N E A R   S C A L I N G
 ===========================
  

 Cut-off radii density fit:                        0.1000000000E-13
 Overlap cut-off criterion AO matrix elements:     0.1000000000E-11
 Cut-offs for Coulomb potential and fitted density:0.1000000000E-13
 Cut-off criterion for Coulomb multipole terms:    0.1000000000E-13
 Progressive Convergence parameter:                 0.000000000    
1
 ***************************************************************************************************



                                            ***************************
                                            *  C O M P U T A T I O N  *
                                            ***************************
  

 Number of elements of the density matrix on this node (used, total):       435       435



 ====================================================
 Numerical Integration : Voronoi Polyhedra (Te Velde)
 ====================================================
  
 General Accuracy Parameter :                         10.00

 Symmetry used in the points section:  ATOM  


 Summary of the Symmetry Unique Points:
 --------------------------------------
    Nr. of used Symmetry Operators                     1

    Points in the Atomic Spheres                      53
    Points in the Atomic Polyhedra                     0
    Points in the Outer Region                         0
    ----------------------------------------------------
    Total                                             53

    Sum of Weights                                 58501.056183

 Total nr. of points:         53
 Nr. of blocks:                1
 Block length:                53
 Nr. of dummy points:          0


 Test of Precision of the Numerical Integration Grid
 ===================================================

 Integral of the Total Core Density:                   1.99999999989103
 Relative Error:                                      -5.448E-11



 =====
 S C F
 =====
  

 CYCLE    1
 orbitals (Q,E):
 ---------------
 S :1...3            ( 2.00    -0.8891)  ( 0.00     0.9006)  ( 0.00    29.7986)
 P :1...3            ( 4.00    -0.3434)  ( 0.00     0.3466)  ( 0.00     3.8196)
 D :1...1            ( 0.00     1.0607)
 F :1...1            ( 0.00     3.3451)

 CYCLE    2
 d-Pmat  mean:  0.39E-02
 imax=      3: -0.18E-01
 orbitals (Q,E):
 ---------------
 S :1...2            ( 2.00    -0.8748)  ( 0.00     0.9112)
 P :1...2            ( 4.00    -0.3296)  ( 0.00     0.3525)
 D :1...1            ( 0.00     1.0686)
 F :1...1            ( 0.00     3.3545)

 CYCLE    3
 d-Pmat  mean:  0.21E-02
 imax=      3:  0.99E-02
 orbitals (Q,E):
 ---------------
 S :1...2            ( 2.00    -0.8822)  ( 0.00     0.9057)
 P :1...2            ( 4.00    -0.3368)  ( 0.00     0.3495)
 D :1...1            ( 0.00     1.0646)
 F :1...1            ( 0.00     3.3498)

 CYCLE    4
 d-Pmat  mean:  0.11E-04
 imax=      3:  0.46E-04
 orbitals (Q,E):
 ---------------
 S :1...2            ( 2.00    -0.8822)  ( 0.00     0.9056)
 P :1...2            ( 4.00    -0.3368)  ( 0.00     0.3494)
 D :1...1            ( 0.00     1.0646)
 F :1...1            ( 0.00     3.3497)

 CYCLE    5
 d-Pmat  mean:  0.17E-06
 imax=      3: -0.76E-06
 orbitals (Q,E):
 ---------------
 S :1...2            ( 2.00    -0.8822)  ( 0.00     0.9056)
 P :1...2            ( 4.00    -0.3368)  ( 0.00     0.3494)
 D :1...1            ( 0.00     1.0646)
 F :1...1            ( 0.00     3.3497)

 CYCLE    6
 d-Pmat  mean:  0.55E-09
 imax=      3: -0.24E-08
 orbitals (Q,E):
 ---------------
 S :1...2            ( 2.00    -0.8822)  ( 0.00     0.9056)
 P :1...2            ( 4.00    -0.3368)  ( 0.00     0.3494)
 D :1...1            ( 0.00     1.0646)
 F :1...1            ( 0.00     3.3497)

 SCF CONVERGED

 CYCLE    7
1
 ***************************************************************************************************



                                                *******************
                                                *  R E S U L T S  *
                                                *******************
  
 *** Setting up for NEW gradients in focky
 *** Using FIT density in focky

 Orbital Energies, per Irrep and Spin:
 ======================================
                        Occup              E (au)              E (eV)       Diff (eV) with prev. cycle
                        -----      --------------------        ------       --------------------------
 S
               1        2.000     -0.88221128536545E+00       -24.006               1.66E-10
               2        0.000      0.90563228538263E+00        24.644
               3        0.000      0.29812243574155E+02       811.232
 P
               1        4.000     -0.33680477824586E+00        -9.165               1.61E-10
               2        0.000      0.34943450766205E+00         9.509
               3        0.000      0.38284685271745E+01       104.178
 D
               1        0.000      0.10645765774618E+01        28.969
 F
               1        0.000      0.33497275977003E+01        91.151


 Partially Occupied:
               1 P                -0.33680477824586E+00
  
 HOMO :        1 S                -0.88221128536545E+00
 LUMO :        2 P                 0.34943450766205E+00
  


 Orbital Energies, all Irreps
 ========================================

 Irrep        no.  (spin)   Occup              E (au)                E (eV)
 ---------------------------------------------------------------------------
 S             1             2.00       -0.88221128536545E+00       -24.0062
 P             1             4.00       -0.33680477824586E+00        -9.1649
 P             2             0.00        0.34943450766205E+00         9.5086
 S             2             0.00        0.90563228538263E+00        24.6435
 D             1             0.00        0.10645765774618E+01        28.9686
 F             1             0.00        0.33497275977003E+01        91.1507
 P             3             0.00        0.38284685271745E+01       104.1779
 S             3             0.00        0.29812243574155E+02       811.2324


 Orbital Energies of the Core Orbitals:
 ======================================
 (Note that the atoms are grouped by atomtype, see the labels, and may hence NOT be in input order)

 AtomType  Orbital  Atom                   E (au)                        E (eV)
 --------  -------  ----           --------------------        ----------------
 O           1S        1          -0.18925284428102E+02                -514.983



 =======================================
 M U L L I K E N   P O P U L A T I O N S
 =======================================
  
 The survey below gives for each atom:
 a) the total charge (Z minus electrons)
 b) the net spin polarization (nr of electrons spin-A minus spin-B)
 c) for each spin the atomic electron valence density (integrated) per L-value.

 Atom              Charge    Spin density          S         P         D         F
 ----              ------    ------------       ------    ------    ------    ------
 1 O               0.0000                       2.0000    4.0000    0.0000    0.0000

 Populations of individual BAS functions
 ----------------------------------------
 1 O            0.0004  0.9256  1.0940 -0.0201  0.3333  0.3333  0.3333  0.7507  0.7507  0.7507
                0.2493  0.2493  0.2493  0.0000  0.0000  0.0000  0.0000  0.0000  0.0000  0.0000
                0.0000  0.0000  0.0000  0.0000  0.0000  0.0000  0.0000  0.0000  0.0000

 Gross Charges per Atom (Z minus electrons)
 ==========================================
             0.0000
 Net Total:  0.00000000


 Atom-Atom Population Matrix (off-diagonal elements not doubled)
 ===============================================================

     1 :     6.0000



 =============
 Dipole Moment  ***  (Debye)  ***
 =============
  
 Vector   :         0.00000000      0.00000000      0.00000000
 Magnitude:         0.00000000

 This molecular dipole moment is calculated with analytic integration



 =========================================
 Quadrupole Moment (Buckingham convention)  ***  (a.u.)  ***
 =========================================
  
      quad-xx        quad-xy        quad-xz        quad-yy        quad-yz        quad-zz
      0.00000000     0.00000000     0.00000000     0.00000000     0.00000000     0.00000000

 This molecular quadrupole moment is calculated with analytic integration



 ===============================================================================
 Electrostatic potential at the Nuclei due to valence electrons and other nuclei
 ===============================================================================
  
         Atom                  Potential
         ----                  ---------
     1)   O                   6.99889603
 
 
 ========================
 No memory problems found
 ========================
 
 Maximum number of active allocate calls:         457
 
 *******************************************************************************

                             A D F   E X I T
 NORMAL TERMINATION



 =================
 Timing Statistics
 =================
  
 Total Used :                     CPU=        0.14      System=        0.07     Elapsed=        0.30

 Calls  Section                     ( Mean, Percentage )
 ---------------------------------------------------------------------------------------------------
     3  ><      ................      0.00    0.00             0.00    0.00             0.00    1.37
     1  INIT    ................      0.01    4.29             0.01    8.70             0.05   16.10
     1  GEOMET  ................      0.01    4.29             0.02   28.98             0.04   11.64
     1  INPUTA  ................      0.00    0.00             0.00    4.35             0.00    0.92
     1  MAINSY  ................      0.00    2.14             0.00    7.25             0.01    4.40
     1  SYMFIT  ................      0.00    0.00             0.00    1.45             0.00    0.11
     1  CORORT  ................      0.00    0.00             0.00    1.45             0.00    0.50
     1  SYMORB  ................      0.00    0.71             0.00    0.00             0.00    0.46
     1  FITINT  ................      0.00    2.86             0.00    5.80             0.02    5.30
     1  CLSMAT  ................      0.00    0.00             0.00    1.45             0.00    0.54
     1  ORTHON  ................      0.00    0.00             0.00    1.45             0.00    0.97
     1  GENPT   ................      0.01    5.00             0.00    1.45             0.01    3.71
     1  PTBAS   ................      0.00    0.71             0.00    1.45             0.00    1.02
     7  FOCKY   ................      0.01   47.86             0.00   14.49             0.01   26.56
     7  FOCKTR  ................      0.00    0.00             0.00    1.45             0.00    0.78
     7  FOCKNM  ................      0.00    0.71             0.00    0.00             0.00    0.06
     7  SDIIS   ................      0.00    3.57             0.00    5.80             0.00    3.48
     7  EMERGE  ................      0.00   10.71             0.00    5.80             0.00    8.49
     1  COREPS  ................      0.00    2.14             0.00    1.45             0.01    1.66
     1  POPAN   ................      0.00    2.14             0.00    0.00             0.00    1.52
     1  DEBYE   ................      0.00    0.71             0.00    1.45             0.00    0.58
     1  QMPOT   ................      0.00    0.71             0.00    1.45             0.00    0.97
     1  EXIT PROCEDURE .........      0.02   11.43             0.00    4.35             0.03    8.83


 Currently Open Files (EXIT00)
 ====================

 Unit    Access Format  Status   Type       Ident (file)
 -------------------------------------------------------
   3      SEQ    FORM   TRANSP  NORMAL      LOGFILE
                                          ( logfile )


 Buffered I/O statistics
 =======================
 Memory available:                     67108864
 Number of records fitting in memory:     16131
 Input :   1.2% of                         3817  *4k bytes
 Output:  10.2% of                         1913  *4k bytes
 Records from serial files evicted:           0
                    others evicted:           0
 Hash table lookups:      15776 with          0 conflicts (  0.00%)

 ***************************************************************************************************
 (LOGFILE)
 <Sep02-2014> <09:35:01>  ADF 2013.01  RunTime: Sep02-2014 09:35:01  Nodes: 1  Procs: 1
 <Sep02-2014> <09:35:01>  Hydrogen (TZ2P)
 <Sep02-2014> <09:35:01>  RunType   : CREATE
 <Sep02-2014> <09:35:01>  Net Charge: 0 (Nuclei minus Electrons)
 <Sep02-2014> <09:35:01>  Symmetry  : ATOM
  Coordinates
    Atom         X           Y           Z   (Angstrom)
    1.H         0.000000    0.000000    0.000000
 <Sep02-2014> <09:35:01>  >>>> CORORT
 <Sep02-2014> <09:35:01>  >>>> FITINT
 <Sep02-2014> <09:35:01>  >>>> CLSMAT
 <Sep02-2014> <09:35:01>  >>>> ORTHON
 <Sep02-2014> <09:35:01>  >>>> GENPT
 <Sep02-2014> <09:35:01>  Acc.Num.Int.=  10.000
 <Sep02-2014> <09:35:01>  Block Length=  41
 <Sep02-2014> <09:35:01>  >>>> PTBAS
 <Sep02-2014> <09:35:01>  >>>> CYCLE
 <Sep02-2014> <09:35:01>    1
 <Sep02-2014> <09:35:01>    2  ErrMat   0.00268967  MaxEl -0.00268172
 <Sep02-2014> <09:35:01>    3  ErrMat   0.00071204  MaxEl  0.00070827
 <Sep02-2014> <09:35:01>    4  ErrMat   0.00001460  MaxEl  0.00001352
 <Sep02-2014> <09:35:02>    5  ErrMat   0.00000003  MaxEl -0.00000003
 <Sep02-2014> <09:35:02>    6  ErrMat   0.00000000  MaxEl  0.00000000
 <Sep02-2014> <09:35:02>  SCF converged
 <Sep02-2014> <09:35:02>    7  ErrMat   0.00000000  MaxEl  0.00000000
 <Sep02-2014> <09:35:02>   Solutions with partially occupied orbitals may not be
 <Sep02-2014> <09:35:02>   lowest in energy. You might consider lowering the
 <Sep02-2014> <09:35:02>   symmetry in the input and explicitly specifying integer
 <Sep02-2014> <09:35:02>   occupations. In that case always check that you obtain
 <Sep02-2014> <09:35:02>   an aufbau solution.
 <Sep02-2014> <09:35:02>  >>>> POPAN
 <Sep02-2014> <09:35:02>  >>>> DEBYE
 <Sep02-2014> <09:35:02>  NORMAL TERMINATION
 <Sep02-2014> <09:35:02>  END
 <Sep02-2014> <09:35:02>  ADF 2013.01  RunTime: Sep02-2014 09:35:02  Nodes: 1  Procs: 1
 <Sep02-2014> <09:35:02>  Nitrogen (TZ2P, 1s frozen)
 <Sep02-2014> <09:35:02>  RunType   : CREATE
 <Sep02-2014> <09:35:02>  Net Charge: 0 (Nuclei minus Electrons)
 <Sep02-2014> <09:35:02>  Symmetry  : ATOM
  Coordinates
    Atom         X           Y           Z   (Angstrom)
    1.N         0.000000    0.000000    0.000000
 <Sep02-2014> <09:35:02>  >>>> CORORT
 <Sep02-2014> <09:35:02>  >>>> FITINT
 <Sep02-2014> <09:35:02>  >>>> CLSMAT
 <Sep02-2014> <09:35:02>  >>>> ORTHON
 <Sep02-2014> <09:35:02>  >>>> GENPT
 <Sep02-2014> <09:35:02>  Acc.Num.Int.=  10.000
 <Sep02-2014> <09:35:02>  Block Length=  52
 <Sep02-2014> <09:35:02>  >>>> PTBAS
 <Sep02-2014> <09:35:02>  >>>> CYCLE
 <Sep02-2014> <09:35:02>    1
 <Sep02-2014> <09:35:02>    2  ErrMat   0.01422934  MaxEl -0.00987426
 <Sep02-2014> <09:35:02>    3  ErrMat   0.01477516  MaxEl  0.01024472
[...]
 <Sep02-2014> <09:53:20>  >>>> GENPT
 <Sep02-2014> <09:53:20>  Acc.Num.Int.=   6.000
 <Sep02-2014> <09:53:20>  Block Length= 128
 <Sep02-2014> <09:53:20>  >>>> PTBAS
 <Sep02-2014> <09:53:21>  >>>> CYCLE
 <Sep02-2014> <09:53:22>    1
 <Sep02-2014> <09:53:22>    2  ErrMat   0.00033258  MaxEl -0.00003063
 <Sep02-2014> <09:53:23>    3  ErrMat   0.00019889  MaxEl -0.00001871
 <Sep02-2014> <09:53:24>    4  ErrMat   0.00023308  MaxEl -0.00003380
 <Sep02-2014> <09:53:25>    5  ErrMat   0.00005203  MaxEl  0.00000820
 <Sep02-2014> <09:53:26>    6  ErrMat   0.00002292  MaxEl -0.00000401
 <Sep02-2014> <09:53:27>    7  ErrMat   0.00001002  MaxEl -0.00000175
 <Sep02-2014> <09:53:28>    8  ErrMat   0.00000352  MaxEl  0.00000055
 <Sep02-2014> <09:53:28>  SCF converged
 <Sep02-2014> <09:53:28>    9  ErrMat   0.00000135  MaxEl -0.00000018
 <Sep02-2014> <09:53:29>  >>>> TOTEN
 <Sep02-2014> <09:53:30>  >>>> POPAN
 <Sep02-2014> <09:53:30>  >>>> DEBYE
 <Sep02-2014> <09:53:30>  >>>> AMETS
 <Sep02-2014> <09:53:31>  >>>> ENGRAD
 <Sep02-2014> <09:53:32>  current energy                               -5.76142413 Hartree
 <Sep02-2014> <09:53:32>  energy change                      -0.00000180     0.00100000    T
 <Sep02-2014> <09:53:33>  constrained gradient max            0.00157549     0.00100000    F
 <Sep02-2014> <09:53:33>  constrained gradient rms            0.00041074     0.00066667    T
 <Sep02-2014> <09:53:33>  gradient max                        0.00157549
 <Sep02-2014> <09:53:33>  gradient rms                        0.00041074
 <Sep02-2014> <09:53:33>  cart. step max                      0.01367881     0.01000000    F
 <Sep02-2014> <09:53:33>  cart. step rms                      0.00250023     0.00666667    T
  Coordinates in Geometry Cycle 67
    Atom         X           Y           Z   (Angstrom)
    1.C         1.293178   -0.116677   -0.725309
    2.C         2.404147   -0.089660    0.172522
    3.C         2.267184   -0.060052    1.549137
    4.N         1.035162   -0.059148    2.152342
    5.C        -0.125400   -0.087986    1.377171
    6.N         0.062426   -0.112442   -0.020995
    7.N         3.471959   -0.033780    2.177054
    8.C         4.348310   -0.045801    1.174037
    9.N         3.769305   -0.079788   -0.054047
   10.C         4.431937   -0.090961   -1.348685
   11.C         0.930561   -0.032421    3.607334
   12.O        -1.241671   -0.090637    1.883982
   13.C        -1.139384   -0.139609   -0.856342
   14.O         1.326404   -0.140935   -1.956289
   15.H        -2.004153   -0.112721   -0.194329
   16.H        -1.138004    0.721597   -1.531276
   17.H        -1.146784   -1.048674   -1.465779
   18.H        -0.129949    0.011781    3.856257
   19.H         1.384162   -0.933646    4.033970
   20.H         1.455877    0.843611    4.001291
   21.H         4.106695    0.764944   -1.946647
   22.H         5.511441   -0.040223   -1.185069
   23.H         4.182926   -1.005698   -1.894091
   24.H         5.425283   -0.030754    1.292392
 <Sep02-2014> <09:53:33>  >>>> CORORT
 <Sep02-2014> <09:53:35>  >>>> FITINT
 <Sep02-2014> <09:53:36>  >>>> CLSMAT
 <Sep02-2014> <09:53:36>  >>>> ORTHON
 <Sep02-2014> <09:53:36>  >>>> GENPT
 <Sep02-2014> <09:53:36>  Acc.Num.Int.=   6.000
 <Sep02-2014> <09:53:36>  Block Length= 128
 <Sep02-2014> <09:53:36>  >>>> PTBAS
 <Sep02-2014> <09:53:37>  >>>> CYCLE
 <Sep02-2014> <09:53:38>    1
 <Sep02-2014> <09:53:38>    2  ErrMat   0.00086470  MaxEl  0.00008973
 <Sep02-2014> <09:53:39>    3  ErrMat   0.00050216  MaxEl  0.00006426
 <Sep02-2014> <09:53:40>    4  ErrMat   0.00058626  MaxEl  0.00008447
 <Sep02-2014> <09:53:41>    5  ErrMat   0.00016663  MaxEl -0.00002557
 <Sep02-2014> <09:53:42>    6  ErrMat   0.00006810  MaxEl  0.00000834
 <Sep02-2014> <09:53:43>    7  ErrMat   0.00003254  MaxEl -0.00000611
 <Sep02-2014> <09:53:44>    8  ErrMat   0.00001056  MaxEl  0.00000174
 <Sep02-2014> <09:53:45>    9  ErrMat   0.00000339  MaxEl -0.00000040
 <Sep02-2014> <09:53:45>  SCF converged
 <Sep02-2014> <09:53:46>   10  ErrMat   0.00000105  MaxEl  0.00000012
 <Sep02-2014> <09:53:46>  >>>> TOTEN
 <Sep02-2014> <09:53:47>  >>>> POPAN
 <Sep02-2014> <09:53:47>  >>>> DEBYE
 <Sep02-2014> <09:53:47>  >>>> AMETS
 <Sep02-2014> <09:53:48>  >>>> ENGRAD
 <Sep02-2014> <09:53:49>  current energy                               -5.76143026 Hartree
 <Sep02-2014> <09:53:49>  energy change                      -0.00000613     0.00100000    T
 <Sep02-2014> <09:53:49>  constrained gradient max            0.00083238     0.00100000    T
 <Sep02-2014> <09:53:49>  constrained gradient rms            0.00019038     0.00066667    T
 <Sep02-2014> <09:53:49>  gradient max                        0.00083238
 <Sep02-2014> <09:53:49>  gradient rms                        0.00019038
 <Sep02-2014> <09:53:49>  cart. step max                      0.01328220     0.01000000    F
 <Sep02-2014> <09:53:49>  cart. step rms                      0.00253774     0.00666667    T
  Coordinates in Geometry Cycle 68
    Atom         X           Y           Z   (Angstrom)
    1.C         1.293002   -0.116038   -0.725431
    2.C         2.403951   -0.088203    0.172467
    3.C         2.267168   -0.059954    1.549153
    4.N         1.035188   -0.059042    2.152365
    5.C        -0.125335   -0.088055    1.377195
    6.N         0.062364   -0.112359   -0.021017
    7.N         3.471845   -0.034300    2.176999
    8.C         4.348189   -0.046058    1.173991
    9.N         3.769254   -0.078650   -0.054053
   10.C         4.432489   -0.092120   -1.348452
   11.C         0.930687   -0.032242    3.607375
   12.O        -1.241544   -0.090954    1.884078
   13.C        -1.139392   -0.140607   -0.856379
   14.O         1.326121   -0.140677   -1.956420
   15.H        -2.004199   -0.114564   -0.194382
   16.H        -1.138869    0.720621   -1.531281
   17.H        -1.145844   -1.049670   -1.465837
   18.H        -0.129911    0.009023    3.856442
   19.H         1.387026   -0.932024    4.034086
   20.H         1.453459    0.845427    4.001141
   21.H         4.117012    0.769467   -1.943454
   22.H         5.512421   -0.053505   -1.184202
   23.H         4.173871   -1.002066   -1.897368
   24.H         5.425084   -0.031451    1.292324
 <Sep02-2014> <09:53:50>  >>>> CORORT
 <Sep02-2014> <09:53:50>  >>>> FITINT
 <Sep02-2014> <09:53:50>  >>>> CLSMAT
 <Sep02-2014> <09:53:51>  >>>> ORTHON
 <Sep02-2014> <09:53:51>  >>>> GENPT
 <Sep02-2014> <09:53:51>  Acc.Num.Int.=   6.000
 <Sep02-2014> <09:53:51>  Block Length= 128
 <Sep02-2014> <09:53:51>  >>>> PTBAS
 <Sep02-2014> <09:53:52>  >>>> CYCLE
 <Sep02-2014> <09:53:52>    1
 <Sep02-2014> <09:53:53>    2  ErrMat   0.00036056  MaxEl  0.00006849
 <Sep02-2014> <09:53:54>    3  ErrMat   0.00024812  MaxEl  0.00005006
 <Sep02-2014> <09:53:55>    4  ErrMat   0.00016784  MaxEl -0.00002427
 <Sep02-2014> <09:53:56>    5  ErrMat   0.00009103  MaxEl  0.00001339
 <Sep02-2014> <09:53:57>    6  ErrMat   0.00002792  MaxEl  0.00000410
 <Sep02-2014> <09:53:58>    7  ErrMat   0.00000946  MaxEl  0.00000141
 <Sep02-2014> <09:53:59>    8  ErrMat   0.00000252  MaxEl -0.00000034
 <Sep02-2014> <09:53:59>  SCF converged
 <Sep02-2014> <09:53:59>    9  ErrMat   0.00000125  MaxEl -0.00000019
 <Sep02-2014> <09:54:00>  >>>> TOTEN
 <Sep02-2014> <09:54:01>  >>>> POPAN
 <Sep02-2014> <09:54:01>  >>>> DEBYE
 <Sep02-2014> <09:54:01>  >>>> AMETS
 <Sep02-2014> <09:54:02>  >>>> ENGRAD
 <Sep02-2014> <09:54:03>  current energy                               -5.76143355 Hartree
 <Sep02-2014> <09:54:03>  energy change                      -0.00000329     0.00100000    T
 <Sep02-2014> <09:54:03>  constrained gradient max            0.00089663     0.00100000    T
 <Sep02-2014> <09:54:03>  constrained gradient rms            0.00016856     0.00066667    T
 <Sep02-2014> <09:54:03>  gradient max                        0.00089663
 <Sep02-2014> <09:54:03>  gradient rms                        0.00016856
 <Sep02-2014> <09:54:03>  cart. step max                      0.01351440     0.01000000    F
 <Sep02-2014> <09:54:03>  cart. step rms                      0.00279021     0.00666667    T
  Coordinates in Geometry Cycle 69
    Atom         X           Y           Z   (Angstrom)
    1.C         1.293095   -0.116024   -0.725421
    2.C         2.403749   -0.087461    0.172545
    3.C         2.267338   -0.059900    1.549345
    4.N         1.035178   -0.058934    2.152560
    5.C        -0.125380   -0.088078    1.377160
    6.N         0.062376   -0.112670   -0.020968
    7.N         3.472242   -0.034924    2.176875
    8.C         4.348222   -0.046053    1.173616
    9.N         3.769014   -0.077605   -0.054130
   10.C         4.432390   -0.092267   -1.348371
   11.C         0.930672   -0.032094    3.607573
   12.O        -1.241794   -0.090936    1.883679
   13.C        -1.139319   -0.140735   -0.856420
   14.O         1.326219   -0.141291   -1.956188
   15.H        -2.004164   -0.115591   -0.194408
   16.H        -1.139284    0.721119   -1.530550
   17.H        -1.145145   -1.049267   -1.466641
   18.H        -0.130013    0.005443    3.856722
   19.H         1.390374   -0.930067    4.034398
   20.H         1.450172    0.847613    4.001210
   21.H         4.127127    0.775960   -1.939328
   22.H         5.512628   -0.067020   -1.183805
   23.H         4.163316   -0.996361   -1.901990
   24.H         5.425154   -0.032061    1.292638
 <Sep02-2014> <09:54:04>  >>>> CORORT
 <Sep02-2014> <09:54:05>  >>>> FITINT
 <Sep02-2014> <09:54:06>  >>>> CLSMAT
 <Sep02-2014> <09:54:06>  >>>> ORTHON
 <Sep02-2014> <09:54:07>  >>>> GENPT
 <Sep02-2014> <09:54:07>  Acc.Num.Int.=   6.000
 <Sep02-2014> <09:54:07>  Block Length= 128
 <Sep02-2014> <09:54:07>  >>>> PTBAS
 <Sep02-2014> <09:54:08>  >>>> CYCLE
 <Sep02-2014> <09:54:08>    1
 <Sep02-2014> <09:54:09>    2  ErrMat   0.00043747  MaxEl  0.00006455
 <Sep02-2014> <09:54:10>    3  ErrMat   0.00026477  MaxEl  0.00005165
 <Sep02-2014> <09:54:11>    4  ErrMat   0.00029733  MaxEl -0.00004633
 <Sep02-2014> <09:54:12>    5  ErrMat   0.00011800  MaxEl  0.00001798
 <Sep02-2014> <09:54:13>    6  ErrMat   0.00005589  MaxEl -0.00001035
 <Sep02-2014> <09:54:14>    7  ErrMat   0.00002024  MaxEl  0.00000347
 <Sep02-2014> <09:54:15>    8  ErrMat   0.00000582  MaxEl -0.00000069
 <Sep02-2014> <09:54:15>  SCF converged
 <Sep02-2014> <09:54:16>    9  ErrMat   0.00000163  MaxEl -0.00000026
 <Sep02-2014> <09:54:16>  >>>> TOTEN
 <Sep02-2014> <09:54:17>  >>>> POPAN
 <Sep02-2014> <09:54:17>  >>>> DEBYE
 <Sep02-2014> <09:54:17>  >>>> AMETS
 <Sep02-2014> <09:54:18>  >>>> ENGRAD
 <Sep02-2014> <09:54:19>  current energy                               -5.76143563 Hartree
 <Sep02-2014> <09:54:19>  energy change                      -0.00000209     0.00100000    T
 <Sep02-2014> <09:54:19>  constrained gradient max            0.00058470     0.00100000    T
 <Sep02-2014> <09:54:19>  constrained gradient rms            0.00017106     0.00066667    T
 <Sep02-2014> <09:54:19>  gradient max                        0.00058470
 <Sep02-2014> <09:54:19>  gradient rms                        0.00017106
 <Sep02-2014> <09:54:19>  cart. step max                      0.01301285     0.01000000    F
 <Sep02-2014> <09:54:19>  cart. step rms                      0.00233932     0.00666667    T
  Coordinates in Geometry Cycle 70
    Atom         X           Y           Z   (Angstrom)
    1.C         1.292902   -0.115299   -0.725574
    2.C         2.403804   -0.085973    0.172260
    3.C         2.267207   -0.059669    1.549199
    4.N         1.035220   -0.059020    2.152452
    5.C        -0.125323   -0.088171    1.377232
    6.N         0.062325   -0.112480   -0.020998
    7.N         3.471705   -0.034852    2.176825
    8.C         4.348065   -0.045825    1.173739
    9.N         3.769044   -0.076474   -0.054213
   10.C         4.433267   -0.094202   -1.348054
   11.C         0.930787   -0.032459    3.607477
   12.O        -1.241558   -0.091322    1.884068
   13.C        -1.139481   -0.141621   -0.856231
   14.O         1.325902   -0.140739   -1.956461
   15.H        -2.004247   -0.116586   -0.194131
   16.H        -1.139922    0.719839   -1.530844
   17.H        -1.145024   -1.050491   -1.465974
   18.H        -0.129997    0.002542    3.856680
   19.H         1.392795   -0.929322    4.034121
   20.H         1.448147    0.848501    4.001162
   21.H         4.137399    0.778420   -1.937246
   22.H         5.513560   -0.080033   -1.182432
   23.H         4.155435   -0.994263   -1.903751
   24.H         5.424975   -0.032402    1.292289
 <Sep02-2014> <09:54:20>  >>>> CORORT
 <Sep02-2014> <09:54:20>  >>>> FITINT
 <Sep02-2014> <09:54:20>  >>>> CLSMAT
 <Sep02-2014> <09:54:20>  >>>> ORTHON
 <Sep02-2014> <09:54:20>  >>>> GENPT
 <Sep02-2014> <09:54:20>  Acc.Num.Int.=   6.000
 <Sep02-2014> <09:54:21>  Block Length= 128
 <Sep02-2014> <09:54:21>  >>>> PTBAS
 <Sep02-2014> <09:54:21>  >>>> CYCLE
 <Sep02-2014> <09:54:22>    1
 <Sep02-2014> <09:54:23>    2  ErrMat   0.00053816  MaxEl  0.00008855
 <Sep02-2014> <09:54:23>    3  ErrMat   0.00032334  MaxEl  0.00006276
 <Sep02-2014> <09:54:24>    4  ErrMat   0.00040500  MaxEl  0.00006608
 <Sep02-2014> <09:54:25>    5  ErrMat   0.00007714  MaxEl -0.00000850
 <Sep02-2014> <09:54:26>    6  ErrMat   0.00006166  MaxEl  0.00001036
 <Sep02-2014> <09:54:27>    7  ErrMat   0.00001897  MaxEl -0.00000407
 <Sep02-2014> <09:54:28>    8  ErrMat   0.00000786  MaxEl  0.00000110
 <Sep02-2014> <09:54:29>    9  ErrMat   0.00000164  MaxEl -0.00000022
 <Sep02-2014> <09:54:29>  SCF converged
 <Sep02-2014> <09:54:30>   10  ErrMat   0.00000078  MaxEl  0.00000013
 <Sep02-2014> <09:54:30>  >>>> TOTEN
 <Sep02-2014> <09:54:31>  >>>> POPAN
 <Sep02-2014> <09:54:31>  >>>> DEBYE
 <Sep02-2014> <09:54:32>  >>>> AMETS
 <Sep02-2014> <09:54:32>  >>>> ENGRAD
 <Sep02-2014> <09:54:34>  current energy                               -5.76143702 Hartree
 <Sep02-2014> <09:54:34>  energy change                      -0.00000138     0.00100000    T
 <Sep02-2014> <09:54:34>  constrained gradient max            0.00119679     0.00100000    F
 <Sep02-2014> <09:54:34>  constrained gradient rms            0.00019801     0.00066667    T
 <Sep02-2014> <09:54:34>  gradient max                        0.00119679
 <Sep02-2014> <09:54:34>  gradient rms                        0.00019801
 <Sep02-2014> <09:54:34>  cart. step max                      0.00873322     0.01000000    T
 <Sep02-2014> <09:54:34>  cart. step rms                      0.00171402     0.00666667    T
  Coordinates in Geometry Cycle 71
    Atom         X           Y           Z   (Angstrom)
    1.C         1.292753   -0.114516   -0.725526
    2.C         2.403743   -0.084818    0.172328
    3.C         2.267092   -0.059513    1.549049
    4.N         1.035174   -0.058785    2.152253
    5.C        -0.125396   -0.088159    1.377199
    6.N         0.062180   -0.112465   -0.021021
    7.N         3.472055   -0.035240    2.176934
    8.C         4.348034   -0.046146    1.173777
    9.N         3.769020   -0.075915   -0.054267
   10.C         4.433661   -0.095434   -1.347908
   11.C         0.930772   -0.032255    3.607269
   12.O        -1.241503   -0.091561    1.884299
   13.C        -1.139613   -0.142985   -0.856233
   14.O         1.325800   -0.139774   -1.956473
   15.H        -2.004391   -0.119771   -0.194098
   16.H        -1.141524    0.718926   -1.530278
   17.H        -1.143644   -1.051443   -1.466593
   18.H        -0.130101    0.000037    3.856513
   19.H         1.395238   -0.927822    4.033936
   20.H         1.445764    0.850145    4.000886
   21.H         4.144061    0.780241   -1.935668
   22.H         5.513980   -0.088766   -1.181804
   23.H         4.149862   -0.992512   -1.905284
   24.H         5.424919   -0.032967    1.292221
 <Sep02-2014> <09:54:34>  >>>> CORORT
 <Sep02-2014> <09:54:34>  >>>> FITINT
 <Sep02-2014> <09:54:34>  >>>> CLSMAT
 <Sep02-2014> <09:54:34>  >>>> ORTHON
 <Sep02-2014> <09:54:34>  >>>> GENPT
 <Sep02-2014> <09:54:34>  Acc.Num.Int.=   6.000
 <Sep02-2014> <09:54:35>  Block Length= 128
 <Sep02-2014> <09:54:35>  >>>> PTBAS
 <Sep02-2014> <09:54:35>  >>>> CYCLE
 <Sep02-2014> <09:54:36>    1
 <Sep02-2014> <09:54:37>    2  ErrMat   0.00037297  MaxEl  0.00005128
 <Sep02-2014> <09:54:38>    3  ErrMat   0.00022777  MaxEl  0.00003680
 <Sep02-2014> <09:54:38>    4  ErrMat   0.00024045  MaxEl  0.00004582
 <Sep02-2014> <09:54:39>    5  ErrMat   0.00005911  MaxEl -0.00001229
 <Sep02-2014> <09:54:40>    6  ErrMat   0.00004150  MaxEl  0.00000834
 <Sep02-2014> <09:54:41>    7  ErrMat   0.00000991  MaxEl -0.00000126
 <Sep02-2014> <09:54:42>    8  ErrMat   0.00000486  MaxEl  0.00000085
 <Sep02-2014> <09:54:42>  SCF converged
 <Sep02-2014> <09:54:43>    9  ErrMat   0.00000137  MaxEl  0.00000022
 <Sep02-2014> <09:54:43>  >>>> TOTEN
 <Sep02-2014> <09:54:45>  >>>> POPAN
 <Sep02-2014> <09:54:45>  >>>> DEBYE
 <Sep02-2014> <09:54:45>  >>>> AMETS
 <Sep02-2014> <09:54:45>  >>>> ENGRAD
 <Sep02-2014> <09:54:47>  current energy                               -5.76143661 Hartree
 <Sep02-2014> <09:54:47>  energy change                       0.00000041     0.00100000    T
 <Sep02-2014> <09:54:47>  constrained gradient max            0.00043497     0.00100000    T
 <Sep02-2014> <09:54:47>  constrained gradient rms            0.00007788     0.00066667    T
 <Sep02-2014> <09:54:47>  gradient max                        0.00043497
 <Sep02-2014> <09:54:47>  gradient rms                        0.00007788
 <Sep02-2014> <09:54:47>  cart. step max                      0.00361055     0.01000000    T
 <Sep02-2014> <09:54:47>  cart. step rms                      0.00067178     0.00666667    T
 <Sep02-2014> <09:54:47>  GEOMETRY CONVERGED
 <Sep02-2014> <09:54:47>  Calculating Energy Terms for Final Geometry
  Coordinates in Geometry Cycle 71
    Atom         X           Y           Z   (Angstrom)
    1.C         1.292753   -0.114516   -0.725526
    2.C         2.403743   -0.084818    0.172328
    3.C         2.267092   -0.059513    1.549049
    4.N         1.035174   -0.058785    2.152253
    5.C        -0.125396   -0.088159    1.377199
    6.N         0.062180   -0.112465   -0.021021
    7.N         3.472055   -0.035240    2.176934
    8.C         4.348034   -0.046146    1.173777
    9.N         3.769020   -0.075915   -0.054267
   10.C         4.433661   -0.095434   -1.347908
   11.C         0.930772   -0.032255    3.607269
   12.O        -1.241503   -0.091561    1.884299
   13.C        -1.139613   -0.142985   -0.856233
   14.O         1.325800   -0.139774   -1.956473
   15.H        -2.004391   -0.119771   -0.194098
   16.H        -1.141524    0.718926   -1.530278
   17.H        -1.143644   -1.051443   -1.466593
   18.H        -0.130101    0.000037    3.856513
   19.H         1.395238   -0.927822    4.033936
   20.H         1.445764    0.850145    4.000886
   21.H         4.144061    0.780241   -1.935668
   22.H         5.513980   -0.088766   -1.181804
   23.H         4.149862   -0.992512   -1.905284
   24.H         5.424919   -0.032967    1.292221
 <Sep02-2014> <09:54:47>  >>>> CORORT
 <Sep02-2014> <09:54:48>  >>>> FITINT
 <Sep02-2014> <09:54:48>  >>>> CLSMAT
 <Sep02-2014> <09:54:48>  >>>> ORTHON
 <Sep02-2014> <09:54:48>  >>>> GENPT
 <Sep02-2014> <09:54:48>  Acc.Num.Int.=   6.000
 <Sep02-2014> <09:54:48>  Block Length= 128
 <Sep02-2014> <09:54:48>  >>>> PTBAS
 <Sep02-2014> <09:54:49>  >>>> CYCLE
 <Sep02-2014> <09:54:50>    1
 <Sep02-2014> <09:54:50>    2  ErrMat   0.00000131  MaxEl -0.00000018
 <Sep02-2014> <09:54:51>  SCF converged
 <Sep02-2014> <09:54:51>    3  ErrMat   0.00000034  MaxEl  0.00000004
 <Sep02-2014> <09:54:52>  >>>> TOTEN
 <Sep02-2014> <09:54:54>  >>>> POPAN
 <Sep02-2014> <09:54:54>  >>>> DEBYE
 <Sep02-2014> <09:54:54>  >>>> AMETS
 <Sep02-2014> <09:54:54>  >>>> POPUL
 <Sep02-2014> <09:54:54>   Bond Energy          -5.76143661 a.u.
 <Sep02-2014> <09:54:54>   Bond Energy        -156.77666698 eV
 <Sep02-2014> <09:54:54>   Bond Energy       -3615.36       kcal/mol
 <Sep02-2014> <09:54:54>  NORMAL TERMINATION
 <Sep02-2014> <09:54:54>  END
